ITEM: TIMESTEP
0
ITEM: NUMBER OF ATOMS
500
ITEM: BOX BOUNDS pp pp pp
0 8.39798
0 8.39798
0 8.39798
ITEM: ATOMS id type xs ys zs
1 1 0 0 0
2 1 0.1 0.1 0
3 1 0.1 0 0.1
4 1 0 0.1 0.1
5 1 0.2 0 0
8 1 0.2 0.1 0.1
21 1 0 0.2 0
23 1 0.1 0.2 0.1
25 1 0.2 0.2 0
101 1 0 0 0.2
102 1 0.1 0.1 0.2
105 1 0.2 0 0.2
121 1 0 0.2 0.2
125 1 0.2 0.2 0.2
6 1 0.3 0.1 0
7 1 0.3 0 0.1
9 1 0.4 0 0
12 1 0.4 0.1 0.1
27 1 0.3 0.2 0.1
29 1 0.4 0.2 0
106 1 0.3 0.1 0.2
109 1 0.4 0 0.2
129 1 0.4 0.2 0.2
10 1 0.5 0.1 0
11 1 0.5 0 0.1
13 1 0.6 0 0
16 1 0.6 0.1 0.1
31 1 0.5 0.2 0.1
33 1 0.6 0.2 0
110 1 0.5 0.1 0.2
113 1 0.6 0 0.2
133 1 0.6 0.2 0.2
14 1 0.7 0.1 0
15 1 0.7 0 0.1
17 1 0.8 0 0
20 1 0.8 0.1 0.1
35 1 0.7 0.2 0.1
37 1 0.8 0.2 0
114 1 0.7 0.1 0.2
117 1 0.8 0 0.2
137 1 0.8 0.2 0.2
18 1 0.9 0.1 0
19 1 0.9 0 0.1
39 1 0.9 0.2 0.1
118 1 0.9 0.1 0.2
22 1 0.1 0.3 0
24 1 0 0.3 0.1
28 1 0.2 0.3 0.1
41 1 0 0.4 0
43 1 0.1 0.4 0.1
45 1 0.2 0.4 0
122 1 0.1 0.3 0.2
141 1 0 0.4 0.2
145 1 0.2 0.4 0.2
26 1 0.3 0.3 0
32 1 0.4 0.3 0.1
47 1 0.3 0.4 0.1
49 1 0.4 0.4 0
126 1 0.3 0.3 0.2
149 1 0.4 0.4 0.2
30 1 0.5 0.3 0
36 1 0.6 0.3 0.1
51 1 0.5 0.4 0.1
53 1 0.6 0.4 0
130 1 0.5 0.3 0.2
153 1 0.6 0.4 0.2
34 1 0.7 0.3 0
40 1 0.8 0.3 0.1
55 1 0.7 0.4 0.1
57 1 0.8 0.4 0
134 1 0.7 0.3 0.2
157 1 0.8 0.4 0.2
38 1 0.9 0.3 0
59 1 0.9 0.4 0.1
138 1 0.9 0.3 0.2
42 1 0.1 0.5 0
44 1 0 0.5 0.1
48 1 0.2 0.5 0.1
61 1 0 0.6 0
63 1 0.1 0.6 0.1
65 1 0.2 0.6 0
142 1 0.1 0.5 0.2
161 1 0 0.6 0.2
165 1 0.2 0.6 0.2
46 1 0.3 0.5 0
52 1 0.4 0.5 0.1
67 1 0.3 0.6 0.1
69 1 0.4 0.6 0
146 1 0.3 0.5 0.2
169 1 0.4 0.6 0.2
50 1 0.5 0.5 0
56 1 0.6 0.5 0.1
71 1 0.5 0.6 0.1
73 1 0.6 0.6 0
150 1 0.5 0.5 0.2
173 1 0.6 0.6 0.2
54 1 0.7 0.5 0
60 1 0.8 0.5 0.1
75 1 0.7 0.6 0.1
77 1 0.8 0.6 0
154 1 0.7 0.5 0.2
177 1 0.8 0.6 0.2
58 1 0.9 0.5 0
79 1 0.9 0.6 0.1
158 1 0.9 0.5 0.2
62 1 0.1 0.7 0
64 1 0 0.7 0.1
68 1 0.2 0.7 0.1
81 1 0 0.8 0
83 1 0.1 0.8 0.1
85 1 0.2 0.8 0
162 1 0.1 0.7 0.2
181 1 0 0.8 0.2
185 1 0.2 0.8 0.2
66 1 0.3 0.7 0
72 1 0.4 0.7 0.1
87 1 0.3 0.8 0.1
89 1 0.4 0.8 0
166 1 0.3 0.7 0.2
189 1 0.4 0.8 0.2
70 1 0.5 0.7 0
76 1 0.6 0.7 0.1
91 1 0.5 0.8 0.1
93 1 0.6 0.8 0
170 1 0.5 0.7 0.2
193 1 0.6 0.8 0.2
74 1 0.7 0.7 0
80 1 0.8 0.7 0.1
95 1 0.7 0.8 0.1
97 1 0.8 0.8 0
174 1 0.7 0.7 0.2
197 1 0.8 0.8 0.2
78 1 0.9 0.7 0
99 1 0.9 0.8 0.1
178 1 0.9 0.7 0.2
82 1 0.1 0.9 0
84 1 0 0.9 0.1
88 1 0.2 0.9 0.1
182 1 0.1 0.9 0.2
86 1 0.3 0.9 0
92 1 0.4 0.9 0.1
186 1 0.3 0.9 0.2
90 1 0.5 0.9 0
96 1 0.6 0.9 0.1
190 1 0.5 0.9 0.2
94 1 0.7 0.9 0
100 1 0.8 0.9 0.1
194 1 0.7 0.9 0.2
98 1 0.9 0.9 0
198 1 0.9 0.9 0.2
103 1 0.1 0 0.3
104 1 0 0.1 0.3
108 1 0.2 0.1 0.3
123 1 0.1 0.2 0.3
201 1 0 0 0.4
202 1 0.1 0.1 0.4
205 1 0.2 0 0.4
221 1 0 0.2 0.4
225 1 0.2 0.2 0.4
107 1 0.3 0 0.3
112 1 0.4 0.1 0.3
127 1 0.3 0.2 0.3
206 1 0.3 0.1 0.4
209 1 0.4 0 0.4
229 1 0.4 0.2 0.4
111 1 0.5 0 0.3
116 1 0.6 0.1 0.3
131 1 0.5 0.2 0.3
210 1 0.5 0.1 0.4
213 1 0.6 0 0.4
233 1 0.6 0.2 0.4
115 1 0.7 0 0.3
120 1 0.8 0.1 0.3
135 1 0.7 0.2 0.3
214 1 0.7 0.1 0.4
217 1 0.8 0 0.4
237 1 0.8 0.2 0.4
119 1 0.9 0 0.3
139 1 0.9 0.2 0.3
218 1 0.9 0.1 0.4
124 1 0 0.3 0.3
128 1 0.2 0.3 0.3
143 1 0.1 0.4 0.3
222 1 0.1 0.3 0.4
241 1 0 0.4 0.4
245 1 0.2 0.4 0.4
132 1 0.4 0.3 0.3
147 1 0.3 0.4 0.3
226 1 0.3 0.3 0.4
249 1 0.4 0.4 0.4
136 1 0.6 0.3 0.3
151 1 0.5 0.4 0.3
230 1 0.5 0.3 0.4
253 1 0.6 0.4 0.4
140 1 0.8 0.3 0.3
155 1 0.7 0.4 0.3
234 1 0.7 0.3 0.4
257 1 0.8 0.4 0.4
159 1 0.9 0.4 0.3
238 1 0.9 0.3 0.4
144 1 0 0.5 0.3
148 1 0.2 0.5 0.3
163 1 0.1 0.6 0.3
242 1 0.1 0.5 0.4
261 1 0 0.6 0.4
265 1 0.2 0.6 0.4
152 1 0.4 0.5 0.3
167 1 0.3 0.6 0.3
246 1 0.3 0.5 0.4
269 1 0.4 0.6 0.4
156 1 0.6 0.5 0.3
171 1 0.5 0.6 0.3
250 1 0.5 0.5 0.4
273 1 0.6 0.6 0.4
160 1 0.8 0.5 0.3
175 1 0.7 0.6 0.3
254 1 0.7 0.5 0.4
277 1 0.8 0.6 0.4
179 1 0.9 0.6 0.3
258 1 0.9 0.5 0.4
164 1 0 0.7 0.3
168 1 0.2 0.7 0.3
183 1 0.1 0.8 0.3
262 1 0.1 0.7 0.4
281 1 0 0.8 0.4
285 1 0.2 0.8 0.4
172 1 0.4 0.7 0.3
187 1 0.3 0.8 0.3
266 1 0.3 0.7 0.4
289 1 0.4 0.8 0.4
176 1 0.6 0.7 0.3
191 1 0.5 0.8 0.3
270 1 0.5 0.7 0.4
293 1 0.6 0.8 0.4
180 1 0.8 0.7 0.3
195 1 0.7 0.8 0.3
274 1 0.7 0.7 0.4
297 1 0.8 0.8 0.4
199 1 0.9 0.8 0.3
278 1 0.9 0.7 0.4
184 1 0 0.9 0.3
188 1 0.2 0.9 0.3
282 1 0.1 0.9 0.4
192 1 0.4 0.9 0.3
286 1 0.3 0.9 0.4
196 1 0.6 0.9 0.3
290 1 0.5 0.9 0.4
200 1 0.8 0.9 0.3
294 1 0.7 0.9 0.4
298 1 0.9 0.9 0.4
203 1 0.1 0 0.5
204 1 0 0.1 0.5
208 1 0.2 0.1 0.5
223 1 0.1 0.2 0.5
301 1 0 0 0.6
302 1 0.1 0.1 0.6
305 1 0.2 0 0.6
321 1 0 0.2 0.6
325 1 0.2 0.2 0.6
207 1 0.3 0 0.5
212 1 0.4 0.1 0.5
227 1 0.3 0.2 0.5
306 1 0.3 0.1 0.6
309 1 0.4 0 0.6
329 1 0.4 0.2 0.6
211 1 0.5 0 0.5
216 1 0.6 0.1 0.5
231 1 0.5 0.2 0.5
310 1 0.5 0.1 0.6
313 1 0.6 0 0.6
333 1 0.6 0.2 0.6
215 1 0.7 0 0.5
220 1 0.8 0.1 0.5
235 1 0.7 0.2 0.5
314 1 0.7 0.1 0.6
317 1 0.8 0 0.6
337 1 0.8 0.2 0.6
219 1 0.9 0 0.5
239 1 0.9 0.2 0.5
318 1 0.9 0.1 0.6
224 1 0 0.3 0.5
228 1 0.2 0.3 0.5
243 1 0.1 0.4 0.5
322 1 0.1 0.3 0.6
341 1 0 0.4 0.6
345 1 0.2 0.4 0.6
232 1 0.4 0.3 0.5
247 1 0.3 0.4 0.5
326 1 0.3 0.3 0.6
349 1 0.4 0.4 0.6
236 1 0.6 0.3 0.5
251 1 0.5 0.4 0.5
330 1 0.5 0.3 0.6
353 1 0.6 0.4 0.6
240 1 0.8 0.3 0.5
255 1 0.7 0.4 0.5
334 1 0.7 0.3 0.6
357 1 0.8 0.4 0.6
259 1 0.9 0.4 0.5
338 1 0.9 0.3 0.6
244 1 0 0.5 0.5
248 1 0.2 0.5 0.5
263 1 0.1 0.6 0.5
342 1 0.1 0.5 0.6
361 1 0 0.6 0.6
365 1 0.2 0.6 0.6
252 1 0.4 0.5 0.5
267 1 0.3 0.6 0.5
346 1 0.3 0.5 0.6
369 1 0.4 0.6 0.6
256 1 0.6 0.5 0.5
271 1 0.5 0.6 0.5
350 1 0.5 0.5 0.6
373 1 0.6 0.6 0.6
260 1 0.8 0.5 0.5
275 1 0.7 0.6 0.5
354 1 0.7 0.5 0.6
377 1 0.8 0.6 0.6
279 1 0.9 0.6 0.5
358 1 0.9 0.5 0.6
264 1 0 0.7 0.5
268 1 0.2 0.7 0.5
283 1 0.1 0.8 0.5
362 1 0.1 0.7 0.6
381 1 0 0.8 0.6
385 1 0.2 0.8 0.6
272 1 0.4 0.7 0.5
287 1 0.3 0.8 0.5
366 1 0.3 0.7 0.6
389 1 0.4 0.8 0.6
276 1 0.6 0.7 0.5
291 1 0.5 0.8 0.5
370 1 0.5 0.7 0.6
393 1 0.6 0.8 0.6
280 1 0.8 0.7 0.5
295 1 0.7 0.8 0.5
374 1 0.7 0.7 0.6
397 1 0.8 0.8 0.6
299 1 0.9 0.8 0.5
378 1 0.9 0.7 0.6
284 1 0 0.9 0.5
288 1 0.2 0.9 0.5
382 1 0.1 0.9 0.6
292 1 0.4 0.9 0.5
386 1 0.3 0.9 0.6
296 1 0.6 0.9 0.5
390 1 0.5 0.9 0.6
300 1 0.8 0.9 0.5
394 1 0.7 0.9 0.6
398 1 0.9 0.9 0.6
303 1 0.1 0 0.7
304 1 0 0.1 0.7
308 1 0.2 0.1 0.7
323 1 0.1 0.2 0.7
401 1 0 0 0.8
402 1 0.1 0.1 0.8
405 1 0.2 0 0.8
421 1 0 0.2 0.8
425 1 0.2 0.2 0.8
307 1 0.3 0 0.7
312 1 0.4 0.1 0.7
327 1 0.3 0.2 0.7
406 1 0.3 0.1 0.8
409 1 0.4 0 0.8
429 1 0.4 0.2 0.8
311 1 0.5 0 0.7
316 1 0.6 0.1 0.7
331 1 0.5 0.2 0.7
410 1 0.5 0.1 0.8
413 1 0.6 0 0.8
433 1 0.6 0.2 0.8
315 1 0.7 0 0.7
320 1 0.8 0.1 0.7
335 1 0.7 0.2 0.7
414 1 0.7 0.1 0.8
417 1 0.8 0 0.8
437 1 0.8 0.2 0.8
319 1 0.9 0 0.7
339 1 0.9 0.2 0.7
418 1 0.9 0.1 0.8
324 1 0 0.3 0.7
328 1 0.2 0.3 0.7
343 1 0.1 0.4 0.7
422 1 0.1 0.3 0.8
441 1 0 0.4 0.8
445 1 0.2 0.4 0.8
332 1 0.4 0.3 0.7
347 1 0.3 0.4 0.7
426 1 0.3 0.3 0.8
449 1 0.4 0.4 0.8
336 1 0.6 0.3 0.7
351 1 0.5 0.4 0.7
430 1 0.5 0.3 0.8
453 1 0.6 0.4 0.8
340 1 0.8 0.3 0.7
355 1 0.7 0.4 0.7
434 1 0.7 0.3 0.8
457 1 0.8 0.4 0.8
359 1 0.9 0.4 0.7
438 1 0.9 0.3 0.8
344 1 0 0.5 0.7
348 1 0.2 0.5 0.7
363 1 0.1 0.6 0.7
442 1 0.1 0.5 0.8
461 1 0 0.6 0.8
465 1 0.2 0.6 0.8
352 1 0.4 0.5 0.7
367 1 0.3 0.6 0.7
446 1 0.3 0.5 0.8
469 1 0.4 0.6 0.8
356 1 0.6 0.5 0.7
371 1 0.5 0.6 0.7
450 1 0.5 0.5 0.8
473 1 0.6 0.6 0.8
360 1 0.8 0.5 0.7
375 1 0.7 0.6 0.7
454 1 0.7 0.5 0.8
477 1 0.8 0.6 0.8
379 1 0.9 0.6 0.7
458 1 0.9 0.5 0.8
364 1 0 0.7 0.7
368 1 0.2 0.7 0.7
383 1 0.1 0.8 0.7
462 1 0.1 0.7 0.8
481 1 0 0.8 0.8
485 1 0.2 0.8 0.8
372 1 0.4 0.7 0.7
387 1 0.3 0.8 0.7
466 1 0.3 0.7 0.8
489 1 0.4 0.8 0.8
376 1 0.6 0.7 0.7
391 1 0.5 0.8 0.7
470 1 0.5 0.7 0.8
493 1 0.6 0.8 0.8
380 1 0.8 0.7 0.7
395 1 0.7 0.8 0.7
474 1 0.7 0.7 0.8
497 1 0.8 0.8 0.8
399 1 0.9 0.8 0.7
478 1 0.9 0.7 0.8
384 1 0 0.9 0.7
388 1 0.2 0.9 0.7
482 1 0.1 0.9 0.8
392 1 0.4 0.9 0.7
486 1 0.3 0.9 0.8
396 1 0.6 0.9 0.7
490 1 0.5 0.9 0.8
400 1 0.8 0.9 0.7
494 1 0.7 0.9 0.8
498 1 0.9 0.9 0.8
403 1 0.1 0 0.9
404 1 0 0.1 0.9
408 1 0.2 0.1 0.9
423 1 0.1 0.2 0.9
407 1 0.3 0 0.9
412 1 0.4 0.1 0.9
427 1 0.3 0.2 0.9
411 1 0.5 0 0.9
416 1 0.6 0.1 0.9
431 1 0.5 0.2 0.9
415 1 0.7 0 0.9
420 1 0.8 0.1 0.9
435 1 0.7 0.2 0.9
419 1 0.9 0 0.9
439 1 0.9 0.2 0.9
424 1 0 0.3 0.9
428 1 0.2 0.3 0.9
443 1 0.1 0.4 0.9
432 1 0.4 0.3 0.9
447 1 0.3 0.4 0.9
436 1 0.6 0.3 0.9
451 1 0.5 0.4 0.9
440 1 0.8 0.3 0.9
455 1 0.7 0.4 0.9
459 1 0.9 0.4 0.9
444 1 0 0.5 0.9
448 1 0.2 0.5 0.9
463 1 0.1 0.6 0.9
452 1 0.4 0.5 0.9
467 1 0.3 0.6 0.9
456 1 0.6 0.5 0.9
471 1 0.5 0.6 0.9
460 1 0.8 0.5 0.9
475 1 0.7 0.6 0.9
479 1 0.9 0.6 0.9
464 1 0 0.7 0.9
468 1 0.2 0.7 0.9
483 1 0.1 0.8 0.9
472 1 0.4 0.7 0.9
487 1 0.3 0.8 0.9
476 1 0.6 0.7 0.9
491 1 0.5 0.8 0.9
480 1 0.8 0.7 0.9
495 1 0.7 0.8 0.9
499 1 0.9 0.8 0.9
484 1 0 0.9 0.9
488 1 0.2 0.9 0.9
492 1 0.4 0.9 0.9
496 1 0.6 0.9 0.9
500 1 0.8 0.9 0.9
ITEM: TIMESTEP
50
ITEM: NUMBER OF ATOMS
500
ITEM: BOX BOUNDS pp pp pp
0 8.39798
0 8.39798
0 8.39798
ITEM: ATOMS id type xs ys zs
1 1 0.00936252 0.994904 0.984028
2 1 0.0969262 0.104173 0.0135553
3 1 0.10309 0.0134093 0.128028
4 1 0.00554262 0.109637 0.108176
5 1 0.210503 0.0121028 0.00603327
8 1 0.185188 0.106394 0.110687
21 1 0.0288277 0.217574 0.00833253
23 1 0.112888 0.204775 0.110915
25 1 0.208787 0.182378 0.0204473
101 1 0.0110305 0.987593 0.225066
102 1 0.113311 0.0954039 0.227968
105 1 0.210942 0.9866 0.226045
121 1 0.0413067 0.203713 0.215547
125 1 0.213168 0.195843 0.214654
6 1 0.305478 0.102889 0.994659
7 1 0.320183 0.99312 0.0574515
9 1 0.409817 0.0203313 0.958014
12 1 0.398059 0.0859179 0.0766446
27 1 0.295292 0.206503 0.106591
29 1 0.370573 0.22274 0.00492502
106 1 0.291757 0.092093 0.211021
109 1 0.390666 0.0155069 0.200053
129 1 0.39238 0.181445 0.191985
10 1 0.525741 0.10944 0.997481
11 1 0.527354 0.997525 0.126764
13 1 0.578882 -0.000337568 0.981126
16 1 0.60055 0.087492 0.0809635
31 1 0.510492 0.201658 0.110754
33 1 0.606839 0.207483 1.00129
110 1 0.492322 0.0924265 0.192959
113 1 0.590914 0.0245695 0.226907
133 1 0.606635 0.192858 0.188779
14 1 0.682244 0.0836162 0.96603
15 1 0.70641 0.0145967 0.0814127
17 1 0.78138 0.00388163 0.97344
20 1 0.823152 0.0658342 0.0982098
35 1 0.722502 0.156634 0.0764383
37 1 0.825029 0.231424 0.976039
114 1 0.710481 0.0854819 0.180924
117 1 0.80727 0.994682 0.203793
137 1 0.783422 0.187264 0.176033
18 1 0.920784 0.087003 0.980936
19 1 0.950784 0.0130473 0.0852335
39 1 0.896535 0.164816 0.102102
118 1 0.909791 0.0626918 0.195639
22 1 0.118006 0.299593 0.0195845
24 1 0.0283922 0.298836 0.116077
28 1 0.195668 0.300893 0.123453
41 1 0.0124412 0.377355 0.994157
43 1 0.0916699 0.414684 0.114722
45 1 0.198497 0.402089 0.0193427
122 1 0.117635 0.287009 0.221166
141 1 0.992946 0.368109 0.219708
145 1 0.191796 0.394512 0.196097
26 1 0.281397 0.300635 0.021434
32 1 0.40401 0.295895 0.117095
47 1 0.285803 0.402882 0.122
49 1 0.371348 0.391209 0.999693
126 1 0.289216 0.301483 0.206864
149 1 0.400195 0.394079 0.201675
30 1 0.510164 0.316247 0.0166142
36 1 0.587813 0.299 0.113867
51 1 0.498079 0.395116 0.132319
53 1 0.632154 0.38836 -0.00545486
130 1 0.503126 0.283975 0.23168
153 1 0.605255 0.39694 0.221019
34 1 0.714587 0.292892 0.97228
40 1 0.787508 0.297992 0.0872325
55 1 0.695085 0.372032 0.110202
57 1 0.778933 0.404144 0.0116513
134 1 0.703315 0.30943 0.208945
157 1 0.787014 0.417624 0.190147
38 1 0.915149 0.290078 0.0446089
59 1 0.887534 0.395511 0.10524
138 1 0.868629 0.281564 0.17801
42 1 0.0872378 0.514315 0.968014
44 1 0.00441974 0.515887 0.0716592
48 1 0.193813 0.506685 0.126176
61 1 0.994234 0.60317 0.982862
63 1 0.0893823 0.591671 0.126606
65 1 0.184644 0.576438 0.990818
142 1 0.0969941 0.495902 0.217072
161 1 0.988102 0.569253 0.202382
165 1 0.18335 0.624782 0.216365
46 1 0.275446 0.49407 0.0179915
52 1 0.410605 0.480362 0.0801193
67 1 0.316382 0.571733 0.102297
69 1 0.408393 0.576449 0.983858
146 1 0.330906 0.502816 0.212763
169 1 0.403699 0.607207 0.180655
50 1 0.519866 0.483642 0.00137257
56 1 0.594466 0.469885 0.0924054
71 1 0.503719 0.578879 0.0912698
73 1 0.593401 0.585838 0.992031
150 1 0.47113 0.497784 0.185597
173 1 0.599787 0.580806 0.19244
54 1 0.718004 0.527562 0.988
60 1 0.800372 0.503241 0.10201
75 1 0.668562 0.596907 0.0937381
77 1 0.817619 0.610228 0.0172126
154 1 0.693648 0.498363 0.158291
177 1 0.799557 0.588743 0.186628
58 1 0.88724 0.505107 0.00590842
79 1 0.912784 0.606551 0.109408
158 1 0.896892 0.47207 0.192372
62 1 0.080748 0.70458 0.971666
64 1 0.0150867 0.705243 0.0858766
68 1 0.173063 0.667786 0.0713336
81 1 0.999687 0.813023 0.983492
83 1 0.126892 0.784046 0.102945
85 1 0.17165 0.820818 0.992478
162 1 0.0950978 0.715031 0.198087
181 1 0.0263372 0.806468 0.186683
185 1 0.214125 0.785662 0.211533
66 1 0.287265 0.677102 0.0139595
72 1 0.39386 0.712222 0.106233
87 1 0.248859 0.777493 0.0860374
89 1 0.410351 0.816497 0.0197895
166 1 0.307339 0.69189 0.194032
189 1 0.38929 0.804398 0.175028
70 1 0.482339 0.710224 0.0283548
76 1 0.602633 0.714201 0.0923236
91 1 0.504779 0.804035 0.119601
93 1 0.607898 0.79994 0.010565
170 1 0.521212 0.680401 0.179583
193 1 0.619919 0.817902 0.2021
74 1 0.713403 0.696455 0.0196246
80 1 0.81623 0.705105 0.110804
95 1 0.719219 0.803068 0.122446
97 1 0.793328 0.811065 0.990477
174 1 0.680816 0.685257 0.185357
197 1 0.822377 0.803925 0.204577
78 1 0.903694 0.700307 0.0206959
99 1 0.925657 0.80308 0.108942
178 1 0.87448 0.686684 0.230459
82 1 0.100181 0.920162 0.962715
84 1 -0.000308425 0.907773 0.118975
88 1 0.195252 0.918262 0.116887
182 1 0.11715 0.88896 0.222355
86 1 0.278028 0.871443 1.00194
92 1 0.409919 0.910094 0.0959304
186 1 0.308864 0.914137 0.200139
90 1 0.517543 0.894863 0.0236826
96 1 0.632535 0.927033 0.115585
190 1 0.482736 0.895685 0.219888
94 1 0.693293 0.884359 0.00848664
100 1 0.822143 0.902989 0.102875
194 1 0.68766 0.917593 0.228027
98 1 0.907579 0.887239 0.00298344
198 1 0.903575 0.90639 0.209466
103 1 0.072992 0.979634 0.330535
104 1 -0.0048102 0.0988462 0.282075
108 1 0.193952 0.0745785 0.334457
123 1 0.137806 0.179913 0.305447
201 1 0.978745 0.9875 0.392815
202 1 0.0962055 0.0742964 0.411248
205 1 0.222023 0.99717 0.440296
221 1 0.0260856 0.187933 0.383644
225 1 0.186906 0.175466 0.415437
107 1 0.300446 0.00481267 0.322332
112 1 0.36709 0.109821 0.331241
127 1 0.329435 0.216567 0.293344
206 1 0.290446 0.0960573 0.427253
209 1 0.398963 0.00892297 0.397305
229 1 0.40036 0.214787 0.415376
111 1 0.490749 0.0122004 0.29873
116 1 0.589067 0.117161 0.307946
131 1 0.46781 0.189036 0.299109
210 1 0.480828 0.109431 0.390976
213 1 0.603406 0.020479 0.400967
233 1 0.57129 0.193871 0.395722
115 1 0.712142 0.0105213 0.308446
120 1 0.792766 0.104185 0.309786
135 1 0.699521 0.177543 0.27365
214 1 0.705473 0.121432 0.392082
217 1 0.789189 0.971661 0.398166
237 1 0.796458 0.223282 0.424759
119 1 0.886441 0.00113365 0.320514
139 1 0.923152 0.204577 0.311345
218 1 0.90836 0.108652 0.384461
124 1 0.0250044 0.283976 0.320142
128 1 0.217838 0.28373 0.312436
143 1 0.0935706 0.397997 0.280197
222 1 0.12983 0.296078 0.39023
241 1 0.00565544 0.380671 0.391766
245 1 0.216577 0.420039 0.38206
132 1 0.412404 0.32008 0.326718
147 1 0.304869 0.400905 0.303435
226 1 0.301345 0.289661 0.408244
249 1 0.407591 0.418968 0.394467
136 1 0.602279 0.257844 0.294517
151 1 0.508475 0.395362 0.310427
230 1 0.520631 0.303051 0.390957
253 1 0.640463 0.382282 0.42225
140 1 0.777301 0.278597 0.307226
155 1 0.723885 0.402378 0.297218
234 1 0.679448 0.250496 0.390699
257 1 0.810197 0.361932 0.402238
159 1 0.864366 0.370145 0.278975
238 1 0.91874 0.274229 0.409167
144 1 0.00527195 0.465004 0.301614
148 1 0.195826 0.502297 0.303561
163 1 0.0903852 0.583394 0.302022
242 1 0.0883333 0.476262 0.406438
261 1 0.993076 0.579742 0.388037
265 1 0.15682 0.598473 0.402927
152 1 0.41471 0.513853 0.300525
167 1 0.280836 0.618351 0.326983
246 1 0.304781 0.502433 0.408928
269 1 0.397391 0.580338 0.409182
156 1 0.569294 0.506224 0.293649
171 1 0.503587 0.632137 0.294998
250 1 0.500052 0.506332 0.403721
273 1 0.620914 0.59653 0.369465
160 1 0.814595 0.489622 0.300839
175 1 0.705031 0.57387 0.273011
254 1 0.711725 0.506706 0.403866
277 1 0.784823 0.600453 0.370752
179 1 0.893007 0.579276 0.301679
258 1 0.899782 0.485728 0.395181
164 1 0.973463 0.708106 0.297934
168 1 0.199596 0.707763 0.314479
183 1 0.101779 0.80106 0.299151
262 1 0.0936588 0.693865 0.382677
281 1 0.967239 0.783879 0.401517
285 1 0.220482 0.830943 0.375574
172 1 0.397909 0.691423 0.286923
187 1 0.309614 0.805249 0.28896
266 1 0.274731 0.725986 0.408711
289 1 0.401285 0.808503 0.397961
176 1 0.604829 0.688879 0.287719
191 1 0.513619 0.770652 0.270755
270 1 0.524641 0.723659 0.400667
293 1 0.616075 0.814567 0.420885
180 1 0.759826 0.712095 0.288968
195 1 0.682333 0.849527 0.327635
274 1 0.694587 0.695495 0.396572
297 1 0.774469 0.80503 0.401605
199 1 0.889447 0.797852 0.301267
278 1 0.868954 0.703024 0.381974
184 1 0.990705 0.882377 0.300033
188 1 0.182489 0.926372 0.331898
282 1 0.0852045 0.8787 0.408681
192 1 0.417297 0.900917 0.330535
286 1 0.327292 0.905034 0.402054
196 1 0.571377 0.89358 0.301473
290 1 0.514871 0.889274 0.408755
200 1 0.802363 0.889522 0.29536
294 1 0.679345 0.913068 0.4315
298 1 0.894364 0.892804 0.386054
203 1 0.107145 0.984149 0.487783
204 1 0.995526 0.105683 0.473143
208 1 0.196186 0.0986889 0.514557
223 1 0.0855987 0.22396 0.495759
301 1 0.0221527 0.0137505 0.571631
302 1 0.108297 0.100585 0.606849
305 1 0.20459 -0.000779248 0.592314
321 1 0.0100518 0.21373 0.586232
325 1 0.205239 0.205236 0.62033
207 1 0.32404 1.00138 0.522972
212 1 0.386436 0.112461 0.511073
227 1 0.289302 0.193136 0.503083
306 1 0.290317 0.107149 0.586102
309 1 0.362083 0.0246982 0.63518
329 1 0.388626 0.223274 0.586065
211 1 0.485234 0.00755691 0.501845
216 1 0.581565 0.0955132 0.497831
231 1 0.489855 0.197518 0.507052
310 1 0.503459 0.0950574 0.590269
313 1 0.593324 0.00347069 0.594261
333 1 0.609803 0.211411 0.629991
215 1 0.702928 0.0206398 0.482473
220 1 0.809394 0.108137 0.471999
235 1 0.686158 0.172554 0.524288
314 1 0.687396 0.0749441 0.60887
317 1 0.789875 0.985669 0.612982
337 1 0.807557 0.188112 0.58849
219 1 0.87743 0.0160778 0.494399
239 1 0.910677 0.195528 0.507315
318 1 0.913251 0.097405 0.575189
224 1 0.00617232 0.32826 0.521813
228 1 0.189781 0.289115 0.509899
243 1 0.121272 0.382078 0.477382
322 1 0.109638 0.313175 0.60208
341 1 0.0180719 0.43533 0.588097
345 1 0.198496 0.392882 0.601
232 1 0.409047 0.321792 0.496625
247 1 0.304791 0.387409 0.482551
326 1 0.286839 0.306425 0.59043
349 1 0.423687 0.419166 0.600462
236 1 0.607931 0.268133 0.495703
251 1 0.530367 0.405591 0.469575
330 1 0.508397 0.28527 0.608593
353 1 0.595841 0.369554 0.577747
240 1 0.77815 0.302402 0.523383
255 1 0.737263 0.429504 0.521426
334 1 0.714556 0.281797 0.64308
357 1 0.796042 0.388982 0.623476
259 1 0.894695 0.40324 0.513323
338 1 0.911253 0.317493 0.603144
244 1 0.972299 0.505314 0.488344
248 1 0.201235 0.489349 0.490954
263 1 0.127937 0.603818 0.514765
342 1 0.117188 0.496332 0.588995
361 1 0.0218336 0.574543 0.581563
365 1 0.221028 0.573151 0.589696
252 1 0.404081 0.489481 0.489555
267 1 0.281921 0.594573 0.482533
346 1 0.317995 0.480005 0.619917
369 1 0.420438 0.58311 0.58629
256 1 0.625495 0.484783 0.501465
271 1 0.524731 0.605482 0.499443
350 1 0.526726 0.505462 0.56567
373 1 0.618704 0.620576 0.604598
260 1 0.800429 0.550693 0.510529
275 1 0.679725 0.600162 0.48853
354 1 0.70085 0.523672 0.599428
377 1 0.770351 0.615864 0.606244
279 1 0.897623 0.61691 0.48444
358 1 0.881296 0.498681 0.576888
264 1 0.0202853 0.644662 0.485157
268 1 0.195885 0.693971 0.500173
283 1 0.110992 0.775996 0.476513
362 1 0.106144 0.734001 0.614721
381 1 0.0118717 0.815268 0.589648
385 1 0.226265 0.801339 0.570106
272 1 0.391496 0.695554 0.468283
287 1 0.325196 0.801569 0.491462
366 1 0.334335 0.696139 0.574894
389 1 0.398565 0.79449 0.606526
276 1 0.610088 0.708954 0.504172
291 1 0.495011 0.800449 0.508399
370 1 0.47494 0.692191 0.629554
393 1 0.599806 0.797942 0.603864
280 1 0.767559 0.70456 0.497878
295 1 0.707688 0.809892 0.503514
374 1 0.703973 0.736539 0.599311
397 1 0.791072 0.821253 0.590002
299 1 0.8629 0.81077 0.492774
378 1 0.890047 0.677223 0.592968
284 1 0.000226422 0.909817 0.502482
288 1 0.181255 0.889999 0.491499
382 1 0.104149 0.914122 0.598441
292 1 0.393295 0.900541 0.496609
386 1 0.316046 0.910545 0.606131
296 1 0.582126 0.903011 0.511114
390 1 0.472563 0.915968 0.603563
300 1 0.794924 0.915003 0.507197
394 1 0.673715 0.894995 0.589387
398 1 0.897622 0.893165 0.591818
303 1 0.0783506 0.993087 0.699078
304 1 0.982252 0.0852102 0.714264
308 1 0.219344 0.0759251 0.694037
323 1 0.0727791 0.205209 0.689155
401 1 0.984296 0.98691 0.790455
402 1 0.131575 0.0831764 0.786842
405 1 0.195356 0.989279 0.814522
421 1 0.974568 0.201244 0.792162
425 1 0.18888 0.206439 0.775135
307 1 0.307199 1.00715 0.738048
312 1 0.391963 0.134597 0.678872
327 1 0.307953 0.22232 0.686058
406 1 0.303583 0.134863 0.772463
409 1 0.405087 0.985408 0.801028
429 1 0.392315 0.232541 0.770917
311 1 0.510386 0.0276179 0.696303
316 1 0.619854 0.115041 0.702623
331 1 0.521187 0.202611 0.710184
410 1 0.474232 0.103337 0.790022
413 1 0.596483 0.0222499 0.801054
433 1 0.615198 0.221306 0.795459
315 1 0.706611 0.0136597 0.722974
320 1 0.801765 0.0916268 0.690917
335 1 0.725094 0.187521 0.722685
414 1 0.727723 0.0947321 0.807843
417 1 0.811902 0.00275677 0.813179
437 1 0.810066 0.199231 0.811398
319 1 0.872883 0.982344 0.703923
339 1 0.922257 0.210807 0.672405
418 1 0.89794 0.114432 0.810159
324 1 0.0101675 0.32249 0.67591
328 1 0.19891 0.319188 0.693721
343 1 0.0956568 0.407796 0.723435
422 1 0.0840628 0.306476 0.788068
441 1 0.981127 0.397972 0.80197
445 1 0.200614 0.39094 0.797958
332 1 0.406748 0.30771 0.663723
347 1 0.295654 0.393697 0.704857
426 1 0.280074 0.296128 0.805724
449 1 0.437004 0.396106 0.791982
336 1 0.587467 0.320024 0.718512
351 1 0.529034 0.421189 0.678301
430 1 0.504253 0.283787 0.819291
453 1 0.582701 0.400826 0.823921
340 1 0.829666 0.294811 0.69924
355 1 0.696451 0.405007 0.70638
434 1 0.701977 0.307329 0.779427
457 1 0.818718 0.420174 0.789176
359 1 0.906842 0.429262 0.692044
438 1 0.891316 0.310747 0.808449
344 1 0.00608337 0.501443 0.689633
348 1 0.196126 0.490862 0.686934
363 1 0.133027 0.618259 0.662808
442 1 0.0566053 0.494566 0.8055
461 1 0.980607 0.587038 0.781631
465 1 0.185468 0.652721 0.78652
352 1 0.394932 0.517288 0.71095
367 1 0.283467 0.609127 0.69295
446 1 0.304606 0.499192 0.812087
469 1 0.40948 0.595282 0.822907
356 1 0.619285 0.500516 0.685237
371 1 0.526041 0.587761 0.679548
450 1 0.532703 0.507488 0.780426
473 1 0.601905 0.60567 0.794896
360 1 0.807756 0.503072 0.693137
375 1 0.706422 0.610931 0.716088
454 1 0.689978 0.499714 0.799001
477 1 0.828458 0.596497 0.796485
379 1 0.900289 0.581059 0.678042
458 1 0.903225 0.49806 0.800133
364 1 0.987756 0.671742 0.680744
368 1 0.22676 0.713014 0.6918
383 1 0.116668 0.800879 0.715063
462 1 0.0646532 0.698756 0.793097
481 1 0.0110892 0.826824 0.793079
485 1 0.179569 0.767076 0.823858
372 1 0.364936 0.699324 0.716214
387 1 0.303742 0.804429 0.687008
466 1 0.29624 0.709137 0.815505
489 1 0.396132 0.800818 0.798616
376 1 0.620411 0.707958 0.695425
391 1 0.488165 0.81014 0.700292
470 1 0.519678 0.689808 0.772738
493 1 0.599696 0.787312 0.826098
380 1 0.802313 0.698498 0.698405
395 1 0.690844 0.808029 0.717599
474 1 0.691105 0.71308 0.801444
497 1 0.806354 0.808186 0.797221
399 1 0.883692 0.813711 0.689888
478 1 0.933054 0.728832 0.774852
384 1 0.984591 0.889927 0.688859
388 1 0.175808 0.90226 0.711641
482 1 0.0961369 0.910354 0.821486
392 1 0.389546 0.911249 0.705066
486 1 0.293041 0.885707 0.799109
396 1 0.585057 0.916553 0.683221
490 1 0.501523 0.899779 0.835097
400 1 0.771473 0.892048 0.72352
494 1 0.646829 0.899815 0.792688
498 1 0.895923 0.90054 0.797562
403 1 0.105393 0.0343445 0.912959
404 1 0.000135704 0.0830104 0.870527
408 1 0.218357 0.0942326 0.885533
423 1 0.127368 0.174099 0.897599
407 1 0.305253 -0.000349317 0.870292
412 1 0.379192 0.117243 0.863001
427 1 0.286984 0.216253 0.915917
411 1 0.494873 0.0341002 0.88407
416 1 0.582296 0.125765 0.874439
431 1 0.488506 0.225942 0.934328
415 1 0.69379 0.983977 0.888506
420 1 0.802924 0.108466 0.906085
435 1 0.70073 0.197249 0.892021
419 1 0.914351 0.988071 0.895598
439 1 0.937571 0.184429 0.914952
424 1 0.968853 0.306954 0.907959
428 1 0.192311 0.321844 0.916254
443 1 0.0861916 0.37616 0.885312
432 1 0.389753 0.307675 0.889056
447 1 0.288039 0.426869 0.903659
436 1 0.605134 0.293417 0.909425
451 1 0.494554 0.384766 0.918675
440 1 0.793591 0.306825 0.874927
455 1 0.683759 0.386967 0.88431
459 1 0.871531 0.386951 0.938291
444 1 0.980458 0.491754 0.918736
448 1 0.181368 0.493664 0.868028
463 1 0.111555 0.593972 0.871829
452 1 0.406945 0.496031 0.892836
467 1 0.315152 0.623054 0.897705
456 1 0.624234 0.500647 0.908235
471 1 0.507012 0.584569 0.891609
460 1 0.789998 0.502496 0.88801
475 1 0.714221 0.62028 0.877661
479 1 0.881548 0.581011 0.903569
464 1 0.959394 0.709175 0.898816
468 1 0.198065 0.681575 0.913571
483 1 0.0817695 0.806042 0.896805
472 1 0.388898 0.70881 0.940786
487 1 0.313774 0.791598 0.908386
476 1 0.590003 0.698808 0.919375
491 1 0.485254 0.776539 0.886392
480 1 0.783491 0.721567 0.89163
495 1 0.706747 0.825428 0.883994
499 1 0.894096 0.811394 0.897777
484 1 0.991293 0.891855 0.894338
488 1 0.204633 0.881869 0.891575
492 1 0.377994 0.905387 0.922985
496 1 0.591429 0.88657 0.922144
500 1 0.810484 0.905174 0.885707
ITEM: TIMESTEP
100
ITEM: NUMBER OF ATOMS
500
ITEM: BOX BOUNDS pp pp pp
0 8.39798
0 8.39798
0 8.39798
ITEM: ATOMS id type xs ys zs
1 1 0.0146548 0.998897 0.99025
2 1 0.0990825 0.0940086 0.00310353
3 1 0.0987556 0.991065 0.100864
4 1 0.0199889 0.105226 0.133401
5 1 0.219487 0.0320295 0.00603414
8 1 0.241878 0.0802463 0.119768
21 1 0.0273219 0.191157 0.999405
23 1 0.139917 0.183597 0.139733
25 1 0.181725 0.202246 0.00940844
101 1 0.9962 0.985902 0.222335
102 1 0.113843 0.082559 0.217792
105 1 0.190176 0.985218 0.197416
121 1 0.0240289 0.178471 0.227675
125 1 0.223194 0.197832 0.220725
6 1 0.296459 0.122078 1.00179
7 1 0.320416 0.0158563 0.0695648
9 1 0.412528 0.0161223 0.979417
12 1 0.434439 0.1088 0.0833883
27 1 0.294848 0.200998 0.103221
29 1 0.379733 0.227664 0.0181498
106 1 0.30991 0.111607 0.227571
109 1 0.414908 0.0076873 0.189513
129 1 0.398479 0.180687 0.184998
10 1 0.481014 0.132351 0.970065
11 1 0.49938 0.00534348 0.0987307
13 1 0.589984 0.982217 0.00898117
16 1 0.586971 0.0862872 0.0967157
31 1 0.500929 0.211351 0.107716
33 1 0.606053 0.202598 0.0271725
110 1 0.502867 0.108197 0.193197
113 1 0.582298 0.997461 0.201358
133 1 0.637127 0.164964 0.180785
14 1 0.662167 0.0852461 0.940059
15 1 0.700911 0.00489893 0.0663049
17 1 0.801073 0.99796 0.968586
20 1 0.810191 0.0663603 0.100048
35 1 0.730029 0.136142 0.0430407
37 1 0.856206 0.253081 0.966733
114 1 0.707385 0.0568977 0.176717
117 1 0.813675 0.97224 0.197681
137 1 0.787316 0.162484 0.17775
18 1 0.919921 0.0939197 0.00581704
19 1 0.919874 0.982866 0.110752
39 1 0.91161 0.162696 0.0997643
118 1 0.90526 0.08611 0.192963
22 1 0.0990799 0.315004 0.00290954
24 1 0.0308413 0.274346 0.128609
28 1 0.209531 0.294074 0.121649
41 1 0.00834991 0.389328 0.0414119
43 1 0.106052 0.38806 0.120593
45 1 0.189779 0.417749 0.0401908
122 1 0.115581 0.306776 0.211416
141 1 0.999076 0.390441 0.206016
145 1 0.218843 0.41368 0.201855
26 1 0.276656 0.308609 0.00423987
32 1 0.392305 0.302472 0.112234
47 1 0.31501 0.409881 0.115764
49 1 0.393554 0.375964 -0.000335363
126 1 0.305239 0.311098 0.198052
149 1 0.405576 0.390725 0.221379
30 1 0.496079 0.305503 0.0378889
36 1 0.62061 0.273332 0.124682
51 1 0.493035 0.397715 0.123324
53 1 0.595963 0.392452 1.00089
130 1 0.486299 0.285461 0.212087
153 1 0.609488 0.378807 0.208625
34 1 0.695418 0.297872 0.973947
40 1 0.78959 0.273408 0.099261
55 1 0.693173 0.373543 0.0967293
57 1 0.759592 0.403028 0.988283
134 1 0.717196 0.272928 0.196729
157 1 0.804472 0.364593 0.180795
38 1 0.9315 0.283032 0.0538571
59 1 0.888762 0.419411 0.0746906
138 1 0.872201 0.272309 0.18798
42 1 0.0755238 0.501858 0.968212
44 1 0.994975 0.501707 0.0901115
48 1 0.210952 0.513612 0.106357
61 1 0.977689 0.598245 0.991344
63 1 0.0796396 0.602194 0.122089
65 1 0.199613 0.564776 0.994916
142 1 0.101806 0.499414 0.202177
161 1 0.994414 0.592342 0.210557
165 1 0.20192 0.609244 0.21502
46 1 0.313602 0.48679 -0.00139807
52 1 0.423475 0.487613 0.0850783
67 1 0.322408 0.588014 0.120424
69 1 0.411497 0.555594 0.980344
146 1 0.311792 0.502124 0.226254
169 1 0.418928 0.598534 0.210208
50 1 0.500264 0.474341 0.981822
56 1 0.572984 0.490653 0.105553
71 1 0.500894 0.584271 0.0883324
73 1 0.614524 0.590106 0.989569
150 1 0.488101 0.488578 0.202524
173 1 0.568314 0.584048 0.186479
54 1 0.717338 0.522434 0.986514
60 1 0.776968 0.495433 0.0948819
75 1 0.676351 0.594954 0.103176
77 1 0.794184 0.620626 0.0256695
154 1 0.696192 0.466886 0.186071
177 1 0.784274 0.596565 0.169421
58 1 0.852771 0.508971 0.981051
79 1 0.926398 0.614067 0.104819
158 1 0.878081 0.515618 0.179611
62 1 0.101958 0.676385 0.970641
64 1 0.0119978 0.70873 0.117583
68 1 0.165814 0.694277 0.0842679
81 1 0.0251897 0.787072 0.0136798
83 1 0.101346 0.816592 0.119249
85 1 0.157956 0.778466 0.989841
162 1 0.0967144 0.694413 0.205327
181 1 0.998677 0.798766 0.219917
185 1 0.199126 0.825129 0.227004
66 1 0.284411 0.656212 0.0127607
72 1 0.395466 0.683818 0.085201
87 1 0.264594 0.775199 0.0973881
89 1 0.396688 0.803004 0.0299025
166 1 0.289406 0.696949 0.194771
189 1 0.371897 0.795991 0.186347
70 1 0.528392 0.691213 0.0195423
76 1 0.607923 0.732874 0.116093
91 1 0.489883 0.796942 0.120443
93 1 0.614222 0.787854 0.99954
170 1 0.501167 0.689179 0.171787
193 1 0.61034 0.806482 0.20973
74 1 0.707678 0.710793 0.0207904
80 1 0.826901 0.71548 0.092211
95 1 0.697655 0.820919 0.0853632
97 1 0.800692 0.801364 0.015024
174 1 0.724246 0.71208 0.166102
197 1 0.790141 0.811407 0.196872
78 1 0.908783 0.718038 0.00744233
99 1 0.914215 0.793221 0.115475
178 1 0.882032 0.6859 0.220461
82 1 0.0986383 0.918165 0.959467
84 1 0.0128819 0.892 0.0868913
88 1 0.203808 0.8985 0.0996336
182 1 0.0984427 0.902705 0.221315
86 1 0.292109 0.872159 0.019274
92 1 0.387052 0.911291 0.102798